11
Lattice="21.0 0.0 0.0 0.0 20.0 0.0 0.0 0.0 20.0" Properties=species:S:1:pos:R:3:forces:R:3 energy=-63.65684907562439 pbc="T T T"
C        9.64238171       9.25790884       9.76962948       0.00316755      -0.01137863       0.00490847
C        8.95182119      10.44889844      10.28779880      -0.00837326      -0.00781958      -0.00727935
C       11.83665819      10.26368181       9.96348663      -0.00584368       0.01555211      -0.00125991
H        9.22102064       8.32648408      10.17492777      -0.00147205       0.00277945       0.00036776
H        8.66981778      11.26266889       9.62130780       0.00575112       0.00629173      -0.00274643
H        9.63669809       9.19281638       8.67532609      -0.00068081       0.00864512       0.01377806
H        8.99604077      10.62057192      11.36988767      -0.00017584      -0.00850986      -0.00111829
Li      13.15779959      11.83886637       9.63133579       0.01077648      -0.00190040       0.00013686
O       11.04684619       9.19062636      10.23844240      -0.00131125       0.00387447      -0.00429265
O       11.37458561      11.31900801       9.40363192       0.00424390      -0.01039025       0.00285467
O       13.06519676      10.15048014      10.31100275      -0.00608221       0.00285599      -0.00534928
