11
Lattice="21.0 0.0 0.0 0.0 20.0 0.0 0.0 0.0 20.0" Properties=species:S:1:pos:R:3:forces:R:3 energy=-63.24054744964343 pbc="T T T"
C        9.88110596       9.24228287       9.79174432       0.00324373      -0.00107664      -0.00146371
C        9.70539775      10.70447128      10.15153718      -0.00463900       0.00253488       0.00165462
C       11.88475066      10.22046685       9.94612452      -0.00829574      -0.00271617      -0.00124717
H        9.32400548       8.57939166      10.45575217      -0.00178158       0.00139829       0.00120058
H        8.97320537      11.22696759       9.52969338       0.00183747      -0.00354905      -0.00112769
H        9.67591465       9.03424832       8.73566970      -0.00492266      -0.00071961      -0.00190097
H        9.51173473      10.84482253      11.22622278      -0.00316888       0.00327173       0.00497653
Li      14.18797961      12.02327751       9.88433733      -0.00216030       0.00523423      -0.00168189
O       11.30516529       9.02203784      10.01441136       0.00322398      -0.00712462      -0.00477571
O       11.04614998      11.25131891       9.86716097       0.00066842       0.00939324      -0.00140623
O       13.10801388      10.32727712       9.94246220       0.01599454      -0.00664632       0.00577167
